version 2
run BERDistance-0-20170902-16:27:54-4636
attr Channel ghassemzadeh-los
attr Receiver 3dB
attr configname BERDistance
attr datetime 20170902-16:27:54
attr distance 1
attr experiment BERDistance
attr inifile omnetpp.ini
attr iterationvars "$distance=1, $nbPackets=250, $Channel=ghassemzadeh-los, $Receiver=3dB"
attr iterationvars2 "$distance=1, $nbPackets=250, $Channel=ghassemzadeh-los, $Receiver=3dB, $repetition=0"
attr measurement "$distance=1, $nbPackets=250, $Channel=ghassemzadeh-los, $Receiver=3dB"
attr nbPackets 250
attr network ieee802154a
attr processid 4636
attr repetition 0
attr replication #0
attr resultdir results
attr runnumber 0
attr seedset 0

vector 14  ieee802154a.node[0].nic.phy  distances  ETV
vector 19  ieee802154a.node[0].nic.phy  pathloss  ETV
vector 23  ieee802154a.node[0].stats  maiPER  ETV
vector 24  ieee802154a.node[0].stats  maiPERnoRS  ETV
vector 0  ieee802154a.node[0].nic.mac  packetsBER  ETV
vector 1  ieee802154a.node[0].nic.mac  meanPacketBER  ETV
vector 11  ieee802154a.node[0].nic.mac  successNoRS  ETV
vector 10  ieee802154a.node[0].nic.mac  success  ETV
vector 8  ieee802154a.node[0].nic.mac  ber  ETV
vector 6  ieee802154a.node[0].nic.mac  packetSuccessRate  ETV
vector 7  ieee802154a.node[0].nic.mac  packetSuccessRateNoRS  ETV
vector 9  ieee802154a.node[0].nic.mac  ser  ETV
0	115	5.001080687102	0.4125
0	164	6.881044741304	0
0	185	7.133553649879	0
0	208	7.526567325539	0
0	241	8.414614236447	0
0	256	8.49481374647	0
0	309	10.246961452614	0
0	336	10.878904590138	0
0	371	11.819882400196	0
0	418	13.408836628786	0
0	443	13.940570937618	0
0	468	14.480093947923	0
0	511	15.862612722054	0
0	544	16.734663958123	0
0	571	17.38703437353	0
0	588	17.463810771616	0
1	115	5.001080687102	0.4125
1	164	6.881044741304	0.20625
1	185	7.133553649879	0.1375
1	208	7.526567325539	0.103125
1	241	8.414614236447	0.0825
1	256	8.49481374647	0.06875
1	309	10.246961452614	0.058928571428571
1	336	10.878904590138	0.0515625
1	371	11.819882400196	0.045833333333333
1	418	13.408836628786	0.04125
1	443	13.940570937618	0.0375
1	468	14.480093947923	0.034375
1	511	15.862612722054	0.031730769230769
1	544	16.734663958123	0.029464285714286
1	571	17.38703437353	0.0275
1	588	17.463810771616	0.02578125
6	115	5.001080687102	0
6	164	6.881044741304	0.5
6	185	7.133553649879	0.66666666666667
6	208	7.526567325539	0.75
6	241	8.414614236447	0.8
6	256	8.49481374647	0.83333333333333
6	309	10.246961452614	0.85714285714286
6	336	10.878904590138	0.875
6	371	11.819882400196	0.88888888888889
6	418	13.408836628786	0.9
6	443	13.940570937618	0.90909090909091
6	468	14.480093947923	0.91666666666667
6	511	15.862612722054	0.92307692307692
6	544	16.734663958123	0.92857142857143
6	571	17.38703437353	0.93333333333333
6	588	17.463810771616	0.9375
7	115	5.001080687102	0
7	164	6.881044741304	0.5
7	185	7.133553649879	0.66666666666667
7	208	7.526567325539	0.75
7	241	8.414614236447	0.8
7	256	8.49481374647	0.83333333333333
7	309	10.246961452614	0.85714285714286
7	336	10.878904590138	0.875
7	371	11.819882400196	0.88888888888889
7	418	13.408836628786	0.9
7	443	13.940570937618	0.90909090909091
7	468	14.480093947923	0.91666666666667
7	511	15.862612722054	0.92307692307692
7	544	16.734663958123	0.92857142857143
7	571	17.38703437353	0.93333333333333
7	588	17.463810771616	0.9375
8	115	5.001080687102	0.4125
8	164	6.881044741304	0.20625
8	185	7.133553649879	0.1375
8	208	7.526567325539	0.103125
8	241	8.414614236447	0.0825
8	256	8.49481374647	0.06875
8	309	10.246961452614	0.058928571428571
8	336	10.878904590138	0.0515625
8	371	11.819882400196	0.045833333333333
8	418	13.408836628786	0.04125
8	443	13.940570937618	0.0375
8	468	14.480093947923	0.034375
8	511	15.862612722054	0.031730769230769
8	544	16.734663958123	0.029464285714286
8	571	17.38703437353	0.0275
8	588	17.463810771616	0.02578125
9	115	5.001080687102	0.95
9	164	6.881044741304	0.475
9	185	7.133553649879	0.31666666666667
9	208	7.526567325539	0.2375
9	241	8.414614236447	0.19
9	256	8.49481374647	0.15833333333333
9	309	10.246961452614	0.13571428571429
9	336	10.878904590138	0.11875
9	371	11.819882400196	0.10555555555556
9	418	13.408836628786	0.095
9	443	13.940570937618	0.086363636363636
9	468	14.480093947923	0.079166666666667
9	511	15.862612722054	0.073076923076923
9	544	16.734663958123	0.067857142857143
9	571	17.38703437353	0.063333333333333
9	588	17.463810771616	0.059375
10	115	5.001080687102	0
10	164	6.881044741304	1
10	185	7.133553649879	1
10	208	7.526567325539	1
10	241	8.414614236447	1
10	256	8.49481374647	1
10	309	10.246961452614	1
10	336	10.878904590138	1
10	371	11.819882400196	1
10	418	13.408836628786	1
10	443	13.940570937618	1
10	468	14.480093947923	1
10	511	15.862612722054	1
10	544	16.734663958123	1
10	571	17.38703437353	1
10	588	17.463810771616	1
11	115	5.001080687102	0
11	164	6.881044741304	1
11	185	7.133553649879	1
11	208	7.526567325539	1
11	241	8.414614236447	1
11	256	8.49481374647	1
11	309	10.246961452614	1
11	336	10.878904590138	1
11	371	11.819882400196	1
11	418	13.408836628786	1
11	443	13.940570937618	1
11	468	14.480093947923	1
11	511	15.862612722054	1
11	544	16.734663958123	1
11	571	17.38703437353	1
11	588	17.463810771616	1
14	107	5.000548813502	11.635425283417
14	156	6.880512867704	12.304447379702
14	177	7.133021776279	12.396745402226
14	200	7.526035451939	12.541466058981
14	233	8.414082362847	12.873038905547
14	248	8.49428187287	12.903282561034
14	301	10.246429579014	13.575462463654
14	328	10.878372716538	13.822894584178
14	363	11.819350526596	14.195788403252
14	410	13.408304755186	14.836555520872
14	435	13.940039064018	15.053840881072
14	460	14.479562074323	15.275669150709
14	503	15.862080848454	15.849954911829
14	536	16.734132084523	16.216218512115
14	563	17.38650249993	16.492099431775
14	580	17.463278898016	16.524669106021
19	107	5.000548813502	8.6572259012462e-007
19	156	6.880512867704	2.8927397065461e-007
19	177	7.133021776279	3.3262113781354e-007
19	200	7.526035451939	2.0353942339764e-007
19	233	8.414082362847	2.2138620554894e-007
19	248	8.49428187287	4.1678695480958e-007
19	301	10.246429579014	3.1414422517297e-007
19	328	10.878372716538	1.3627499009875e-007
19	363	11.819350526596	1.5859724193735e-007
19	410	13.408304755186	6.1386690570147e-008
19	435	13.940039064018	3.9654489264362e-007
19	460	14.479562074323	3.738752076214e-007
19	503	15.862080848454	4.8397238378731e-007
19	536	16.734132084523	2.2421565744563e-007
19	563	17.38650249993	4.3453386536069e-007
19	580	17.463278898016	2.1408500983826e-007
23	108	5.000620313502	0
23	157	6.880584367704	0
23	164	6.881044741304	0.5
23	178	7.133093276279	0.33333333333333
23	185	7.133553649879	0.66666666666667
23	201	7.526106951939	0.5
23	208	7.526567325539	0.75
23	234	8.414153862847	0.6
23	241	8.414614236447	0.8
23	249	8.49435337287	0.66666666666667
23	256	8.49481374647	0.83333333333333
23	302	10.246501079014	0.71428571428571
23	309	10.246961452614	0.85714285714286
23	329	10.878444216538	0.75
23	336	10.878904590138	0.875
23	364	11.819422026596	0.77777777777778
23	371	11.819882400196	0.88888888888889
23	411	13.408376255186	0.8
23	418	13.408836628786	0.9
23	436	13.940110564018	0.81818181818182
23	443	13.940570937618	0.90909090909091
23	461	14.479633574323	0.83333333333333
23	468	14.480093947923	0.91666666666667
23	504	15.862152348454	0.84615384615385
23	511	15.862612722054	0.92307692307692
23	537	16.734203584523	0.85714285714286
23	544	16.734663958123	0.92857142857143
23	564	17.38657399993	0.86666666666667
23	571	17.38703437353	0.93333333333333
23	581	17.463350398016	0.875
23	588	17.463810771616	0.9375
24	108	5.000620313502	0
24	157	6.880584367704	0
24	164	6.881044741304	0.5
24	178	7.133093276279	0.33333333333333
24	185	7.133553649879	0.66666666666667
24	201	7.526106951939	0.5
24	208	7.526567325539	0.75
24	234	8.414153862847	0.6
24	241	8.414614236447	0.8
24	249	8.49435337287	0.66666666666667
24	256	8.49481374647	0.83333333333333
24	302	10.246501079014	0.71428571428571
24	309	10.246961452614	0.85714285714286
24	329	10.878444216538	0.75
24	336	10.878904590138	0.875
24	364	11.819422026596	0.77777777777778
24	371	11.819882400196	0.88888888888889
24	411	13.408376255186	0.8
24	418	13.408836628786	0.9
24	436	13.940110564018	0.81818181818182
24	443	13.940570937618	0.90909090909091
24	461	14.479633574323	0.83333333333333
24	468	14.480093947923	0.91666666666667
24	504	15.862152348454	0.84615384615385
24	511	15.862612722054	0.92307692307692
24	537	16.734203584523	0.85714285714286
24	544	16.734663958123	0.92857142857143
24	564	17.38657399993	0.86666666666667
24	571	17.38703437353	0.93333333333333
24	581	17.463350398016	0.875
24	588	17.463810771616	0.9375
